LAMMPS data file for LJ fluid (500 atoms, liquid state near triple point)
Generated for ChemVCS demo. Reduced LJ units: rho*=0.8, T*=1.0

500 atoms
1 atom types

0.00000000 8.05927689 xlo xhi
0.00000000 8.05927689 ylo yhi
0.00000000 8.05927689 zlo zhi

Masses

1 1.0

Atoms  # atomic: id type x y z

1 1 0.20000 0.20000 0.20000
2 1 1.01182 0.20000 0.20000
3 1 2.02364 0.20000 0.20000
4 1 3.03546 0.20000 0.20000
5 1 4.04728 0.20000 0.20000
6 1 5.05910 0.20000 0.20000
7 1 6.07092 0.20000 0.20000
8 1 7.08274 0.20000 0.20000
9 1 0.20000 1.01182 0.20000
10 1 1.01182 1.01182 0.20000
11 1 2.02364 1.01182 0.20000
12 1 3.03546 1.01182 0.20000
13 1 4.04728 1.01182 0.20000
14 1 5.05910 1.01182 0.20000
15 1 6.07092 1.01182 0.20000
16 1 7.08274 1.01182 0.20000
17 1 0.20000 2.02364 0.20000
18 1 1.01182 2.02364 0.20000
19 1 2.02364 2.02364 0.20000
20 1 3.03546 2.02364 0.20000
21 1 4.04728 2.02364 0.20000
22 1 5.05910 2.02364 0.20000
23 1 6.07092 2.02364 0.20000
24 1 7.08274 2.02364 0.20000
25 1 0.20000 3.03546 0.20000
26 1 1.01182 3.03546 0.20000
27 1 2.02364 3.03546 0.20000
28 1 3.03546 3.03546 0.20000
29 1 4.04728 3.03546 0.20000
30 1 5.05910 3.03546 0.20000
31 1 6.07092 3.03546 0.20000
32 1 7.08274 3.03546 0.20000
33 1 0.20000 4.04728 0.20000
34 1 1.01182 4.04728 0.20000
35 1 2.02364 4.04728 0.20000
36 1 3.03546 4.04728 0.20000
37 1 4.04728 4.04728 0.20000
38 1 5.05910 4.04728 0.20000
39 1 6.07092 4.04728 0.20000
40 1 7.08274 4.04728 0.20000
41 1 0.20000 5.05910 0.20000
42 1 1.01182 5.05910 0.20000
43 1 2.02364 5.05910 0.20000
44 1 3.03546 5.05910 0.20000
45 1 4.04728 5.05910 0.20000
46 1 5.05910 5.05910 0.20000
47 1 6.07092 5.05910 0.20000
48 1 7.08274 5.05910 0.20000
49 1 0.20000 6.07092 0.20000
50 1 1.01182 6.07092 0.20000
51 1 2.02364 6.07092 0.20000
52 1 3.03546 6.07092 0.20000
53 1 4.04728 6.07092 0.20000
54 1 5.05910 6.07092 0.20000
55 1 6.07092 6.07092 0.20000
56 1 7.08274 6.07092 0.20000
57 1 0.20000 7.08274 0.20000
58 1 1.01182 7.08274 0.20000
59 1 2.02364 7.08274 0.20000
60 1 3.03546 7.08274 0.20000
61 1 4.04728 7.08274 0.20000
62 1 5.05910 7.08274 0.20000
63 1 6.07092 7.08274 0.20000
64 1 7.08274 7.08274 0.20000
65 1 0.20000 0.20000 1.01182
66 1 1.01182 0.20000 1.01182
67 1 2.02364 0.20000 1.01182
68 1 3.03546 0.20000 1.01182
69 1 4.04728 0.20000 1.01182
70 1 5.05910 0.20000 1.01182
71 1 6.07092 0.20000 1.01182
72 1 7.08274 0.20000 1.01182
73 1 0.20000 1.01182 1.01182
74 1 1.01182 1.01182 1.01182
75 1 2.02364 1.01182 1.01182
76 1 3.03546 1.01182 1.01182
77 1 4.04728 1.01182 1.01182
78 1 5.05910 1.01182 1.01182
79 1 6.07092 1.01182 1.01182
80 1 7.08274 1.01182 1.01182
81 1 0.20000 2.02364 1.01182
82 1 1.01182 2.02364 1.01182
83 1 2.02364 2.02364 1.01182
84 1 3.03546 2.02364 1.01182
85 1 4.04728 2.02364 1.01182
86 1 5.05910 2.02364 1.01182
87 1 6.07092 2.02364 1.01182
88 1 7.08274 2.02364 1.01182
89 1 0.20000 3.03546 1.01182
90 1 1.01182 3.03546 1.01182
91 1 2.02364 3.03546 1.01182
92 1 3.03546 3.03546 1.01182
93 1 4.04728 3.03546 1.01182
94 1 5.05910 3.03546 1.01182
95 1 6.07092 3.03546 1.01182
96 1 7.08274 3.03546 1.01182
97 1 0.20000 4.04728 1.01182
98 1 1.01182 4.04728 1.01182
99 1 2.02364 4.04728 1.01182
100 1 3.03546 4.04728 1.01182
101 1 4.04728 4.04728 1.01182
102 1 5.05910 4.04728 1.01182
103 1 6.07092 4.04728 1.01182
104 1 7.08274 4.04728 1.01182
105 1 0.20000 5.05910 1.01182
106 1 1.01182 5.05910 1.01182
107 1 2.02364 5.05910 1.01182
108 1 3.03546 5.05910 1.01182
109 1 4.04728 5.05910 1.01182
110 1 5.05910 5.05910 1.01182
111 1 6.07092 5.05910 1.01182
112 1 7.08274 5.05910 1.01182
113 1 0.20000 6.07092 1.01182
114 1 1.01182 6.07092 1.01182
115 1 2.02364 6.07092 1.01182
116 1 3.03546 6.07092 1.01182
117 1 4.04728 6.07092 1.01182
118 1 5.05910 6.07092 1.01182
119 1 6.07092 6.07092 1.01182
120 1 7.08274 6.07092 1.01182
121 1 0.20000 7.08274 1.01182
122 1 1.01182 7.08274 1.01182
123 1 2.02364 7.08274 1.01182
124 1 3.03546 7.08274 1.01182
125 1 4.04728 7.08274 1.01182
126 1 5.05910 7.08274 1.01182
127 1 6.07092 7.08274 1.01182
128 1 7.08274 7.08274 1.01182
129 1 0.20000 0.20000 2.02364
130 1 1.01182 0.20000 2.02364
131 1 2.02364 0.20000 2.02364
132 1 3.03546 0.20000 2.02364
133 1 4.04728 0.20000 2.02364
134 1 5.05910 0.20000 2.02364
135 1 6.07092 0.20000 2.02364
136 1 7.08274 0.20000 2.02364
137 1 0.20000 1.01182 2.02364
138 1 1.01182 1.01182 2.02364
139 1 2.02364 1.01182 2.02364
140 1 3.03546 1.01182 2.02364
141 1 4.04728 1.01182 2.02364
142 1 5.05910 1.01182 2.02364
143 1 6.07092 1.01182 2.02364
144 1 7.08274 1.01182 2.02364
145 1 0.20000 2.02364 2.02364
146 1 1.01182 2.02364 2.02364
147 1 2.02364 2.02364 2.02364
148 1 3.03546 2.02364 2.02364
149 1 4.04728 2.02364 2.02364
150 1 5.05910 2.02364 2.02364
151 1 6.07092 2.02364 2.02364
152 1 7.08274 2.02364 2.02364
153 1 0.20000 3.03546 2.02364
154 1 1.01182 3.03546 2.02364
155 1 2.02364 3.03546 2.02364
156 1 3.03546 3.03546 2.02364
157 1 4.04728 3.03546 2.02364
158 1 5.05910 3.03546 2.02364
159 1 6.07092 3.03546 2.02364
160 1 7.08274 3.03546 2.02364
161 1 0.20000 4.04728 2.02364
162 1 1.01182 4.04728 2.02364
163 1 2.02364 4.04728 2.02364
164 1 3.03546 4.04728 2.02364
165 1 4.04728 4.04728 2.02364
166 1 5.05910 4.04728 2.02364
167 1 6.07092 4.04728 2.02364
168 1 7.08274 4.04728 2.02364
169 1 0.20000 5.05910 2.02364
170 1 1.01182 5.05910 2.02364
171 1 2.02364 5.05910 2.02364
172 1 3.03546 5.05910 2.02364
173 1 4.04728 5.05910 2.02364
174 1 5.05910 5.05910 2.02364
175 1 6.07092 5.05910 2.02364
176 1 7.08274 5.05910 2.02364
177 1 0.20000 6.07092 2.02364
178 1 1.01182 6.07092 2.02364
179 1 2.02364 6.07092 2.02364
180 1 3.03546 6.07092 2.02364
181 1 4.04728 6.07092 2.02364
182 1 5.05910 6.07092 2.02364
183 1 6.07092 6.07092 2.02364
184 1 7.08274 6.07092 2.02364
185 1 0.20000 7.08274 2.02364
186 1 1.01182 7.08274 2.02364
187 1 2.02364 7.08274 2.02364
188 1 3.03546 7.08274 2.02364
189 1 4.04728 7.08274 2.02364
190 1 5.05910 7.08274 2.02364
191 1 6.07092 7.08274 2.02364
192 1 7.08274 7.08274 2.02364
193 1 0.20000 0.20000 3.03546
194 1 1.01182 0.20000 3.03546
195 1 2.02364 0.20000 3.03546
196 1 3.03546 0.20000 3.03546
197 1 4.04728 0.20000 3.03546
198 1 5.05910 0.20000 3.03546
199 1 6.07092 0.20000 3.03546
200 1 7.08274 0.20000 3.03546
201 1 0.20000 1.01182 3.03546
202 1 1.01182 1.01182 3.03546
203 1 2.02364 1.01182 3.03546
204 1 3.03546 1.01182 3.03546
205 1 4.04728 1.01182 3.03546
206 1 5.05910 1.01182 3.03546
207 1 6.07092 1.01182 3.03546
208 1 7.08274 1.01182 3.03546
209 1 0.20000 2.02364 3.03546
210 1 1.01182 2.02364 3.03546
211 1 2.02364 2.02364 3.03546
212 1 3.03546 2.02364 3.03546
213 1 4.04728 2.02364 3.03546
214 1 5.05910 2.02364 3.03546
215 1 6.07092 2.02364 3.03546
216 1 7.08274 2.02364 3.03546
217 1 0.20000 3.03546 3.03546
218 1 1.01182 3.03546 3.03546
219 1 2.02364 3.03546 3.03546
220 1 3.03546 3.03546 3.03546
221 1 4.04728 3.03546 3.03546
222 1 5.05910 3.03546 3.03546
223 1 6.07092 3.03546 3.03546
224 1 7.08274 3.03546 3.03546
225 1 0.20000 4.04728 3.03546
226 1 1.01182 4.04728 3.03546
227 1 2.02364 4.04728 3.03546
228 1 3.03546 4.04728 3.03546
229 1 4.04728 4.04728 3.03546
230 1 5.05910 4.04728 3.03546
231 1 6.07092 4.04728 3.03546
232 1 7.08274 4.04728 3.03546
233 1 0.20000 5.05910 3.03546
234 1 1.01182 5.05910 3.03546
235 1 2.02364 5.05910 3.03546
236 1 3.03546 5.05910 3.03546
237 1 4.04728 5.05910 3.03546
238 1 5.05910 5.05910 3.03546
239 1 6.07092 5.05910 3.03546
240 1 7.08274 5.05910 3.03546
241 1 0.20000 6.07092 3.03546
242 1 1.01182 6.07092 3.03546
243 1 2.02364 6.07092 3.03546
244 1 3.03546 6.07092 3.03546
245 1 4.04728 6.07092 3.03546
246 1 5.05910 6.07092 3.03546
247 1 6.07092 6.07092 3.03546
248 1 7.08274 6.07092 3.03546
249 1 0.20000 7.08274 3.03546
250 1 1.01182 7.08274 3.03546
251 1 2.02364 7.08274 3.03546
252 1 3.03546 7.08274 3.03546
253 1 4.04728 7.08274 3.03546
254 1 5.05910 7.08274 3.03546
255 1 6.07092 7.08274 3.03546
256 1 7.08274 7.08274 3.03546
257 1 0.20000 0.20000 4.04728
258 1 1.01182 0.20000 4.04728
259 1 2.02364 0.20000 4.04728
260 1 3.03546 0.20000 4.04728
261 1 4.04728 0.20000 4.04728
262 1 5.05910 0.20000 4.04728
263 1 6.07092 0.20000 4.04728
264 1 7.08274 0.20000 4.04728
265 1 0.20000 1.01182 4.04728
266 1 1.01182 1.01182 4.04728
267 1 2.02364 1.01182 4.04728
268 1 3.03546 1.01182 4.04728
269 1 4.04728 1.01182 4.04728
270 1 5.05910 1.01182 4.04728
271 1 6.07092 1.01182 4.04728
272 1 7.08274 1.01182 4.04728
273 1 0.20000 2.02364 4.04728
274 1 1.01182 2.02364 4.04728
275 1 2.02364 2.02364 4.04728
276 1 3.03546 2.02364 4.04728
277 1 4.04728 2.02364 4.04728
278 1 5.05910 2.02364 4.04728
279 1 6.07092 2.02364 4.04728
280 1 7.08274 2.02364 4.04728
281 1 0.20000 3.03546 4.04728
282 1 1.01182 3.03546 4.04728
283 1 2.02364 3.03546 4.04728
284 1 3.03546 3.03546 4.04728
285 1 4.04728 3.03546 4.04728
286 1 5.05910 3.03546 4.04728
287 1 6.07092 3.03546 4.04728
288 1 7.08274 3.03546 4.04728
289 1 0.20000 4.04728 4.04728
290 1 1.01182 4.04728 4.04728
291 1 2.02364 4.04728 4.04728
292 1 3.03546 4.04728 4.04728
293 1 4.04728 4.04728 4.04728
294 1 5.05910 4.04728 4.04728
295 1 6.07092 4.04728 4.04728
296 1 7.08274 4.04728 4.04728
297 1 0.20000 5.05910 4.04728
298 1 1.01182 5.05910 4.04728
299 1 2.02364 5.05910 4.04728
300 1 3.03546 5.05910 4.04728
301 1 4.04728 5.05910 4.04728
302 1 5.05910 5.05910 4.04728
303 1 6.07092 5.05910 4.04728
304 1 7.08274 5.05910 4.04728
305 1 0.20000 6.07092 4.04728
306 1 1.01182 6.07092 4.04728
307 1 2.02364 6.07092 4.04728
308 1 3.03546 6.07092 4.04728
309 1 4.04728 6.07092 4.04728
310 1 5.05910 6.07092 4.04728
311 1 6.07092 6.07092 4.04728
312 1 7.08274 6.07092 4.04728
313 1 0.20000 7.08274 4.04728
314 1 1.01182 7.08274 4.04728
315 1 2.02364 7.08274 4.04728
316 1 3.03546 7.08274 4.04728
317 1 4.04728 7.08274 4.04728
318 1 5.05910 7.08274 4.04728
319 1 6.07092 7.08274 4.04728
320 1 7.08274 7.08274 4.04728
321 1 0.20000 0.20000 5.05910
322 1 1.01182 0.20000 5.05910
323 1 2.02364 0.20000 5.05910
324 1 3.03546 0.20000 5.05910
325 1 4.04728 0.20000 5.05910
326 1 5.05910 0.20000 5.05910
327 1 6.07092 0.20000 5.05910
328 1 7.08274 0.20000 5.05910
329 1 0.20000 1.01182 5.05910
330 1 1.01182 1.01182 5.05910
331 1 2.02364 1.01182 5.05910
332 1 3.03546 1.01182 5.05910
333 1 4.04728 1.01182 5.05910
334 1 5.05910 1.01182 5.05910
335 1 6.07092 1.01182 5.05910
336 1 7.08274 1.01182 5.05910
337 1 0.20000 2.02364 5.05910
338 1 1.01182 2.02364 5.05910
339 1 2.02364 2.02364 5.05910
340 1 3.03546 2.02364 5.05910
341 1 4.04728 2.02364 5.05910
342 1 5.05910 2.02364 5.05910
343 1 6.07092 2.02364 5.05910
344 1 7.08274 2.02364 5.05910
345 1 0.20000 3.03546 5.05910
346 1 1.01182 3.03546 5.05910
347 1 2.02364 3.03546 5.05910
348 1 3.03546 3.03546 5.05910
349 1 4.04728 3.03546 5.05910
350 1 5.05910 3.03546 5.05910
351 1 6.07092 3.03546 5.05910
352 1 7.08274 3.03546 5.05910
353 1 0.20000 4.04728 5.05910
354 1 1.01182 4.04728 5.05910
355 1 2.02364 4.04728 5.05910
356 1 3.03546 4.04728 5.05910
357 1 4.04728 4.04728 5.05910
358 1 5.05910 4.04728 5.05910
359 1 6.07092 4.04728 5.05910
360 1 7.08274 4.04728 5.05910
361 1 0.20000 5.05910 5.05910
362 1 1.01182 5.05910 5.05910
363 1 2.02364 5.05910 5.05910
364 1 3.03546 5.05910 5.05910
365 1 4.04728 5.05910 5.05910
366 1 5.05910 5.05910 5.05910
367 1 6.07092 5.05910 5.05910
368 1 7.08274 5.05910 5.05910
369 1 0.20000 6.07092 5.05910
370 1 1.01182 6.07092 5.05910
371 1 2.02364 6.07092 5.05910
372 1 3.03546 6.07092 5.05910
373 1 4.04728 6.07092 5.05910
374 1 5.05910 6.07092 5.05910
375 1 6.07092 6.07092 5.05910
376 1 7.08274 6.07092 5.05910
377 1 0.20000 7.08274 5.05910
378 1 1.01182 7.08274 5.05910
379 1 2.02364 7.08274 5.05910
380 1 3.03546 7.08274 5.05910
381 1 4.04728 7.08274 5.05910
382 1 5.05910 7.08274 5.05910
383 1 6.07092 7.08274 5.05910
384 1 7.08274 7.08274 5.05910
385 1 0.20000 0.20000 6.07092
386 1 1.01182 0.20000 6.07092
387 1 2.02364 0.20000 6.07092
388 1 3.03546 0.20000 6.07092
389 1 4.04728 0.20000 6.07092
390 1 5.05910 0.20000 6.07092
391 1 6.07092 0.20000 6.07092
392 1 7.08274 0.20000 6.07092
393 1 0.20000 1.01182 6.07092
394 1 1.01182 1.01182 6.07092
395 1 2.02364 1.01182 6.07092
396 1 3.03546 1.01182 6.07092
397 1 4.04728 1.01182 6.07092
398 1 5.05910 1.01182 6.07092
399 1 6.07092 1.01182 6.07092
400 1 7.08274 1.01182 6.07092
401 1 0.20000 2.02364 6.07092
402 1 1.01182 2.02364 6.07092
403 1 2.02364 2.02364 6.07092
404 1 3.03546 2.02364 6.07092
405 1 4.04728 2.02364 6.07092
406 1 5.05910 2.02364 6.07092
407 1 6.07092 2.02364 6.07092
408 1 7.08274 2.02364 6.07092
409 1 0.20000 3.03546 6.07092
410 1 1.01182 3.03546 6.07092
411 1 2.02364 3.03546 6.07092
412 1 3.03546 3.03546 6.07092
413 1 4.04728 3.03546 6.07092
414 1 5.05910 3.03546 6.07092
415 1 6.07092 3.03546 6.07092
416 1 7.08274 3.03546 6.07092
417 1 0.20000 4.04728 6.07092
418 1 1.01182 4.04728 6.07092
419 1 2.02364 4.04728 6.07092
420 1 3.03546 4.04728 6.07092
421 1 4.04728 4.04728 6.07092
422 1 5.05910 4.04728 6.07092
423 1 6.07092 4.04728 6.07092
424 1 7.08274 4.04728 6.07092
425 1 0.20000 5.05910 6.07092
426 1 1.01182 5.05910 6.07092
427 1 2.02364 5.05910 6.07092
428 1 3.03546 5.05910 6.07092
429 1 4.04728 5.05910 6.07092
430 1 5.05910 5.05910 6.07092
431 1 6.07092 5.05910 6.07092
432 1 7.08274 5.05910 6.07092
433 1 0.20000 6.07092 6.07092
434 1 1.01182 6.07092 6.07092
435 1 2.02364 6.07092 6.07092
436 1 3.03546 6.07092 6.07092
437 1 4.04728 6.07092 6.07092
438 1 5.05910 6.07092 6.07092
439 1 6.07092 6.07092 6.07092
440 1 7.08274 6.07092 6.07092
441 1 0.20000 7.08274 6.07092
442 1 1.01182 7.08274 6.07092
443 1 2.02364 7.08274 6.07092
444 1 3.03546 7.08274 6.07092
445 1 4.04728 7.08274 6.07092
446 1 5.05910 7.08274 6.07092
447 1 6.07092 7.08274 6.07092
448 1 7.08274 7.08274 6.07092
449 1 0.20000 0.20000 7.08274
450 1 1.01182 0.20000 7.08274
451 1 2.02364 0.20000 7.08274
452 1 3.03546 0.20000 7.08274
453 1 4.04728 0.20000 7.08274
454 1 5.05910 0.20000 7.08274
455 1 6.07092 0.20000 7.08274
456 1 7.08274 0.20000 7.08274
457 1 0.20000 1.01182 7.08274
458 1 1.01182 1.01182 7.08274
459 1 2.02364 1.01182 7.08274
460 1 3.03546 1.01182 7.08274
461 1 4.04728 1.01182 7.08274
462 1 5.05910 1.01182 7.08274
463 1 6.07092 1.01182 7.08274
464 1 7.08274 1.01182 7.08274
465 1 0.20000 2.02364 7.08274
466 1 1.01182 2.02364 7.08274
467 1 2.02364 2.02364 7.08274
468 1 3.03546 2.02364 7.08274
469 1 4.04728 2.02364 7.08274
470 1 5.05910 2.02364 7.08274
471 1 6.07092 2.02364 7.08274
472 1 7.08274 2.02364 7.08274
473 1 0.20000 3.03546 7.08274
474 1 1.01182 3.03546 7.08274
475 1 2.02364 3.03546 7.08274
476 1 3.03546 3.03546 7.08274
477 1 4.04728 3.03546 7.08274
478 1 5.05910 3.03546 7.08274
479 1 6.07092 3.03546 7.08274
480 1 7.08274 3.03546 7.08274
481 1 0.20000 4.04728 7.08274
482 1 1.01182 4.04728 7.08274
483 1 2.02364 4.04728 7.08274
484 1 3.03546 4.04728 7.08274
485 1 4.04728 4.04728 7.08274
486 1 5.05910 4.04728 7.08274
487 1 6.07092 4.04728 7.08274
488 1 7.08274 4.04728 7.08274
489 1 0.20000 5.05910 7.08274
490 1 1.01182 5.05910 7.08274
491 1 2.02364 5.05910 7.08274
492 1 3.03546 5.05910 7.08274
493 1 4.04728 5.05910 7.08274
494 1 5.05910 5.05910 7.08274
495 1 6.07092 5.05910 7.08274
496 1 7.08274 5.05910 7.08274
497 1 0.20000 6.07092 7.08274
498 1 1.01182 6.07092 7.08274
499 1 2.02364 6.07092 7.08274
500 1 3.03546 6.07092 7.08274
