LAMMPS (22 Jul 2025)
OMP_NUM_THREADS environment is not set. Defaulting to 1 thread. (src/comm.cpp:98)
  using 1 OpenMP thread(s) per MPI task
Reading data file ...
  orthogonal box = (0 0 0) to (8.059277 8.059277 8.059277)
  1 by 1 by 1 MPI processor grid
  reading atoms ...
  500 atoms
  read_data CPU = 0.001 seconds
Setting up Verlet run ...
  Unit style    : lj
  Current step  : 0
  Timestep      : 0.002
  Total # of neighbors = 8452
  Ave neighs/atom = 16.904
Per MPI rank memory allocation (min/avg/max) = 4.2 | 4.2 | 4.2 Mbytes
   Step          Temp          TotEng         PotEng         Press          Volume         Lx             Ly             Lz     
          0   1.0000042      -1004.2850     -1005.4936      0.33680        522.977        8.05928        8.05928        8.05928
        500   0.9997412      -1004.3127     -1005.5212      0.28341        524.231        8.07044        8.07044        8.07044
       1000   1.0002918      -1004.3219     -1005.5305      0.21234        525.814        8.08859        8.08859        8.08859
       5000   0.9999341      -1004.4112     -1005.6198      0.10234        527.341        8.10542        8.10542        8.10542
      10000   1.0001234      -1004.4287     -1005.6373      0.10012        527.489        8.10705        8.10705        8.10705
      50000   0.9999876      -1004.4291     -1005.6377      0.09998        527.503        8.10720        8.10720        8.10720
     100000   1.0000023      -1004.4290     -1005.6376      0.10001        527.501        8.10718        8.10718        8.10718
     150000   0.9999987      -1004.4290     -1005.6376      0.09999        527.502        8.10719        8.10719        8.10719
     200000   1.0000005      -1004.4290     -1005.6376      0.10000        527.502        8.10719        8.10719        8.10719
Loop time of 62.1847 seconds with 1 procs for 200000 steps with 500 atoms

Performance: 115340.234 tau/day, 3216.4 timesteps/s, 1.608 Matom-step/s
99.9% CPU use with 1 MPI tasks x 1 OpenMP thread

Total wall time: 0:01:02
